TITLE = "B00202"
VARIABLES = "x", "y", "Vx", "Vy"
ZONE T="Frame 0", I=64, J=64
-155.294330 118.261325 -16.831691 0.035905
-150.084986 118.261325 -16.794132 0.129594
-144.875642 118.261325 -16.720331 0.268981
-139.666298 118.261325 -16.654603 0.301310
-134.456954 118.261325 -16.636360 0.140685
-129.247611 118.261325 -16.604884 0.042584
-124.038267 118.261325 -16.569460 -0.069808
-118.828923 118.261325 -16.526759 -0.190003
-113.619579 118.261325 -16.493823 -0.329505
-108.410235 118.261325 -16.496612 -0.487057
-103.200891 118.261325 -16.540926 -0.629884
-97.991547 118.261325 -16.600278 -0.712404
-92.782203 118.261325 -16.641473 -0.713518
-87.572859 118.261325 -16.661376 -0.654691
-82.363515 118.261325 -16.689797 -0.584499
-77.154171 118.261325 -16.752871 -0.546236
-71.944828 118.261325 -16.839693 -0.553581
-66.735484 118.261325 -16.910116 -0.589466
-61.526140 118.261325 -16.932120 -0.626647
-56.316796 118.261325 -16.906888 -0.651131
-51.107452 118.261325 -16.861790 -0.666764
-45.898108 118.261325 -16.829715 -0.681290
-40.688764 118.261325 -16.837529 -0.696599
-35.479420 118.261325 -16.901455 -0.716057
-30.270076 118.261325 -17.017447 -0.752681
-25.060732 118.261325 -17.153793 -0.817803
-19.851388 118.261325 -17.264736 -0.898306
-14.642045 118.261325 -17.321680 -0.950823
-9.432701 118.261325 -17.332146 -0.926150
-4.223357 118.261325 -17.327798 -0.806725
0.985987 118.261325 -17.337571 -0.626908
6.195331 118.261325 -17.372967 -0.457896
11.404675 118.261325 -17.429757 -0.365124
16.614019 118.261325 -17.492744 -0.368253
21.823363 118.261325 -17.539340 -0.433177
27.032707 118.261325 -17.549981 -0.498899
32.242051 118.261325 -17.523974 -0.515089
37.451395 118.261325 -17.484562 -0.465470
42.660738 118.261325 -17.463806 -0.370109
47.870082 118.261325 -17.479732 -0.271306
53.079426 118.261325 -17.525780 -0.209387
58.288770 118.261325 -17.578253 -0.198851
63.498114 118.261325 -17.611702 -0.219747
68.707458 118.261325 -17.611342 -0.231155
73.916802 118.261325 -17.577948 -0.197403
79.126146 118.261325 -17.524124 -0.109231
84.335490 118.261325 -17.464473 0.013210
89.544834 118.261325 -17.407545 0.136740
94.754178 118.261325 -17.356132 0.238533
99.963521 118.261325 -17.312612 0.317682
105.172865 118.261325 -17.280180 0.386851
110.382209 118.261325 -17.257507 0.455881
115.591553 118.261325 -17.233704 0.524030
120.800897 118.261325 -17.191772 0.582179
126.010241 118.261325 -17.121580 0.616218
131.219585 118.261325 -17.033007 0.611275
136.428929 118.261325 -16.954525 0.562247
141.638273 118.261325 -16.911969 0.483328
146.847617 118.261325 -16.904057 0.400885
152.056961 118.261325 -16.900560 0.332402
157.266304 118.261325 -16.936533 0.294823
162.475648 118.261325 -16.816739 0.234480
167.684992 118.261325 -16.678900 0.144675
172.894336 118.261325 -16.608032 0.087703
-155.294330 113.051981 -16.727281 -0.168724
-150.084986 113.051981 -16.723445 -0.069310
-144.875642 113.051981 -16.709157 0.091093
-139.666298 113.051981 -16.687205 0.164531
-134.456954 113.051981 -16.662861 0.042142
-129.247611 113.051981 -16.632600 -0.033971
-124.038267 113.051981 -16.589853 -0.140499
-118.828923 113.051981 -16.539593 -0.266318
-113.619579 113.051981 -16.503080 -0.411637
-108.410235 113.051981 -16.505135 -0.566619
-103.200891 113.051981 -16.548534 -0.698045
-97.991547 113.051981 -16.605694 -0.765186
-92.782203 113.051981 -16.643853 -0.751139
-87.572859 113.051981 -16.658775 -0.678712
-82.363515 113.051981 -16.677339 -0.596980
-77.154171 113.051981 -16.725012 -0.550903
-71.944828 113.051981 -16.795908 -0.556404
-66.735484 113.051981 -16.858129 -0.597003
-61.526140 113.051981 -16.884349 -0.642880
-56.316796 113.051981 -16.872563 -0.675429
-51.107452 113.051981 -16.841534 -0.695341
-45.898108 113.051981 -16.816659 -0.711201
-40.688764 113.051981 -16.822927 -0.728035
-35.479420 113.051981 -16.879948 -0.750228
-30.270076 113.051981 -16.989176 -0.787913
-25.060732 113.051981 -17.123523 -0.848811
-19.851388 113.051981 -17.239080 -0.919933
-14.642045 113.051981 -17.305579 -0.962881
-9.432701 113.051981 -17.326554 -0.935281
-4.223357 113.051981 -17.330168 -0.823616
0.985987 113.051981 -17.344240 -0.660013
6.195331 113.051981 -17.380831 -0.507329
11.404675 113.051981 -17.436395 -0.421400
16.614019 113.051981 -17.496665 -0.417606
21.823363 113.051981 -17.541425 -0.465789
27.032707 113.051981 -17.554092 -0.513926
32.242051 113.051981 -17.534439 -0.519542
37.451395 113.051981 -17.502013 -0.468757
42.660738 113.051981 -17.483618 -0.378103
47.870082 113.051981 -17.494880 -0.283150
53.079426 113.051981 -17.531294 -0.218646
58.288770 113.051981 -17.573307 -0.198229
63.498114 113.051981 -17.598854 -0.205952
68.707458 113.051981 -17.595133 -0.206148
73.916802 113.051981 -17.564057 -0.165454
79.126146 113.051981 -17.517994 -0.073129
84.335490 113.051981 -17.468777 0.052905
89.544834 113.051981 -17.420371 0.179062
94.754178 113.051981 -17.372249 0.279548
99.963521 113.051981 -17.327253 0.351311
105.172865 113.051981 -17.291882 0.408420
110.382209 113.051981 -17.267497 0.464627
115.591553 113.051981 -17.242867 0.522275
120.800897 113.051981 -17.198329 0.573142
126.010241 113.051981 -17.121255 0.603713
131.219585 113.051981 -17.021178 0.601144
136.428929 113.051981 -16.928830 0.562006
141.638273 113.051981 -16.874249 0.498327
146.847617 113.051981 -16.860953 0.430210
152.056961 113.051981 -16.862181 0.369021
157.266304 113.051981 -16.903094 0.335823
162.475648 113.051981 -16.816538 0.261160
167.684992 113.051981 -16.707128 0.161785
172.894336 113.051981 -16.652471 0.100987
-155.294330 107.842638 -16.563862 -0.498159
-150.084986 107.842638 -16.616337 -0.402906
-144.875642 107.842638 -16.699450 -0.233846
-139.666298 107.842638 -16.746515 -0.115783
-134.456954 107.842638 -16.712031 -0.177276
-129.247611 107.842638 -16.684967 -0.220480
-124.038267 107.842638 -16.633825 -0.314163
-118.828923 107.842638 -16.576523 -0.441638
-113.619579 107.842638 -16.538856 -0.586913
-108.410235 107.842638 -16.540694 -0.728886
-103.200891 107.842638 -16.578579 -0.836738
-97.991547 107.842638 -16.625099 -0.879630
-92.782203 107.842638 -16.651661 -0.846836
-87.572859 107.842638 -16.653600 -0.760453
-82.363515 107.842638 -16.651336 -0.667252
-77.154171 107.842638 -16.667559 -0.613210
-71.944828 107.842638 -16.706018 -0.617804
-66.735484 107.842638 -16.752032 -0.666240
-61.526140 107.842638 -16.788116 -0.725273
-56.316796 107.842638 -16.805504 -0.769080
-51.107452 107.842638 -16.805236 -0.793043
-45.898108 107.842638 -16.797634 -0.807099
-40.688764 107.842638 -16.803482 -0.822025
-35.479420 107.842638 -16.847683 -0.844726
-30.270076 107.842638 -16.941263 -0.880758
-25.060732 107.842638 -17.066939 -0.931239
-19.851388 107.842638 -17.187120 -0.982932
-14.642045 107.842638 -17.270685 -1.006200
-9.432701 107.842638 -17.313414 -0.971046
-4.223357 107.842638 -17.334568 -0.871011
0.985987 107.842638 -17.357718 -0.733483
6.195331 107.842638 -17.395460 -0.605600
11.404675 107.842638 -17.446369 -0.525883
16.614019 107.842638 -17.499237 -0.502986
21.823363 107.842638 -17.539369 -0.515609
27.032707 107.842638 -17.556283 -0.529619
32.242051 107.842638 -17.550423 -0.517363
37.451395 107.842638 -17.533575 -0.468365
42.660738 107.842638 -17.521504 -0.390671
47.870082 107.842638 -17.524239 -0.305453
53.079426 107.842638 -17.540579 -0.236004
58.288770 107.842638 -17.559516 -0.194412
63.498114 107.842638 -17.567481 -0.173322
68.707458 107.842638 -17.557724 -0.148812
73.916802 107.842638 -17.534880 -0.093952
79.126146 107.842638 -17.509128 0.003585
84.335490 107.842638 -17.484286 0.130778
89.544834 107.842638 -17.453534 0.255649
94.754178 107.842638 -17.409119 0.349168
99.963521 107.842638 -17.354631 0.404913
105.172865 107.842638 -17.303660 0.438664
110.382209 107.842638 -17.265025 0.470633
115.591553 107.842638 -17.230650 0.509445
120.800897 107.842638 -17.179338 0.549947
126.010241 107.842638 -17.094461 0.580386
131.219585 107.842638 -16.981549 0.590469
136.428929 107.842638 -16.869925 0.577175
141.638273 107.842638 -16.793623 0.545927
146.847617 107.842638 -16.766039 0.504381
152.056961 107.842638 -16.771622 0.453874
157.266304 107.842638 -16.813053 0.422754
162.475648 107.842638 -16.799274 0.319803
167.684992 107.842638 -16.756165 0.203959
172.894336 107.842638 -16.738666 0.136913
-155.294330 102.633294 -16.439405 -0.694378
-150.084986 102.633294 -16.531405 -0.632399
-144.875642 102.633294 -16.681954 -0.513996
-139.666298 102.633294 -16.776973 -0.413474
-134.456954 102.633294 -16.747830 -0.437379
-129.247611 102.633294 -16.734879 -0.465629
-124.038267 102.633294 -16.693115 -0.545166
-118.828923 102.633294 -16.645708 -0.659616
-113.619579 102.633294 -16.615665 -0.786151
-108.410235 102.633294 -16.613998 -0.900955
-103.200891 102.633294 -16.632697 -0.980681
-97.991547 102.633294 -16.651390 -1.005427
-92.782203 102.633294 -16.653806 -0.968357
-87.572859 102.633294 -16.639128 -0.886591
-82.363515 102.633294 -16.619692 -0.800005
-77.154171 102.633294 -16.610494 -0.751893
-71.944828 102.633294 -16.620994 -0.762960
-66.735484 102.633294 -16.652591 -0.819516
-61.526140 102.633294 -16.698496 -0.886417
-56.316796 102.633294 -16.744933 -0.933561
-51.107452 102.633294 -16.777495 -0.953434
-45.898108 102.633294 -16.792837 -0.957913
-40.688764 102.633294 -16.805823 -0.963091
-35.479420 102.633294 -16.841703 -0.978492
-30.270076 102.633294 -16.916756 -1.005865
-25.060732 102.633294 -17.024274 -1.040170
-19.851388 102.633294 -17.138803 -1.067696
-14.642045 102.633294 -17.234316 -1.067221
-9.432701 102.633294 -17.300110 -1.020841
-4.223357 102.633294 -17.343051 -0.928470
0.985987 102.633294 -17.377960 -0.811636
6.195331 102.633294 -17.416006 -0.700989
11.404675 102.633294 -17.458940 -0.618076
16.614019 102.633294 -17.500898 -0.566369
21.823363 102.633294 -17.534351 -0.535546
27.032707 102.633294 -17.555288 -0.510998
32.242051 102.633294 -17.564424 -0.480159
37.451395 102.633294 -17.565277 -0.434938
42.660738 102.633294 -17.561883 -0.373499
47.870082 102.633294 -17.557252 -0.301440
53.079426 102.633294 -17.551950 -0.229417
58.288770 102.633294 -17.543725 -0.166722
63.498114 102.633294 -17.530351 -0.114408
68.707458 102.633294 -17.514551 -0.062520
73.916802 102.633294 -17.504548 0.005350
79.126146 102.633294 -17.505839 0.100167
84.335490 102.633294 -17.510754 0.215048
89.544834 102.633294 -17.499399 0.324766
94.754178 102.633294 -17.455358 0.402176
99.963521 102.633294 -17.381292 0.438768
105.172865 102.633294 -17.297102 0.449616
110.382209 102.633294 -17.222079 0.458871
115.591553 102.633294 -17.159015 0.481623
120.800897 102.633294 -17.094036 0.517880
126.010241 102.633294 -17.010339 0.558625
131.219585 102.633294 -16.904349 0.594107
136.428929 102.633294 -16.792593 0.617623
141.638273 102.633294 -16.703494 0.624496
146.847617 102.633294 -16.659355 0.609325
152.056961 102.633294 -16.663043 0.566045
157.266304 102.633294 -16.690045 0.527925
162.475648 102.633294 -16.762624 0.398909
167.684992 102.633294 -16.805408 0.274771
172.894336 102.633294 -16.834357 0.206741
-155.294330 97.423950 -16.452010 -0.685802
-150.084986 97.423950 -16.522292 -0.676638
-144.875642 97.423950 -16.636687 -0.654362
-139.666298 97.423950 -16.714348 -0.626088
-134.456954 97.423950 -16.716152 -0.637764
-129.247611 97.423950 -16.722857 -0.661838
-124.038267 97.423950 -16.704020 -0.715133
-118.828923 97.423950 -16.672969 -0.792041
-113.619579 97.423950 -16.646624 -0.878110
-108.410235 97.423950 -16.635667 -0.954894
-103.200891 97.423950 -16.637339 -1.004595
-97.991547 97.423950 -16.639924 -1.014269
-92.782203 97.423950 -16.634880 -0.981713
-87.572859 97.423950 -16.623918 -0.921347
-82.363515 97.423950 -16.615656 -0.862991
-77.154171 97.423950 -16.618264 -0.838598
-71.944828 97.423950 -16.635664 -0.863263
-66.735484 97.423950 -16.667465 -0.925615
-61.526140 97.423950 -16.709008 -0.996941
-56.316796 97.423950 -16.751733 -1.051513
-51.107452 97.423950 -16.787492 -1.080686
-45.898108 97.423950 -16.816043 -1.091383
-40.688764 97.423950 -16.848222 -1.095337
-35.479420 97.423950 -16.899297 -1.100871
-30.270076 97.423950 -16.976930 -1.111014
-25.060732 97.423950 -17.074437 -1.123360
-19.851388 97.423950 -17.174847 -1.128635
-14.642045 97.423950 -17.261658 -1.111675
-9.432701 97.423950 -17.327661 -1.059185
-4.223357 97.423950 -17.376623 -0.970549
0.985987 97.423950 -17.418188 -0.861264
6.195331 97.423950 -17.460296 -0.753803
11.404675 97.423950 -17.504144 -0.663589
16.614019 97.423950 -17.544600 -0.592768
21.823363 97.423950 -17.575108 -0.534874
27.032707 97.423950 -17.592787 -0.482101
32.242051 97.423950 -17.599882 -0.427934
37.451395 97.423950 -17.601322 -0.367101
42.660738 97.423950 -17.600830 -0.297392
47.870082 97.423950 -17.598485 -0.221873
53.079426 97.423950 -17.591492 -0.147041
58.288770 97.423950 -17.577974 -0.077516
63.498114 97.423950 -17.561032 -0.012335
68.707458 97.423950 -17.548856 0.054496
73.916802 97.423950 -17.548933 0.130428
79.126146 97.423950 -17.559576 0.219079
84.335490 97.423950 -17.566044 0.314884
89.544834 97.423950 -17.547088 0.402563
94.754178 97.423950 -17.489194 0.465382
99.963521 97.423950 -17.396940 0.497423
105.172865 97.423950 -17.289628 0.508678
110.382209 97.423950 -17.187494 0.517853
115.591553 97.423950 -17.100083 0.539673
120.800897 97.423950 -17.024513 0.577143
126.010241 97.423950 -16.951208 0.622848
131.219585 97.423950 -16.871882 0.665602
136.428929 97.423950 -16.786827 0.696121
141.638273 97.423950 -16.707801 0.708214
146.847617 97.423950 -16.652836 0.697364
152.056961 97.423950 -16.635226 0.661344
157.266304 97.423950 -16.623413 0.620370
162.475648 97.423950 -16.700904 0.524523
167.684992 97.423950 -16.764458 0.449014
172.894336 97.423950 -16.803154 0.410448
-155.294330 92.214606 -16.415332 -0.760712
-150.084986 92.214606 -16.481774 -0.784384
-144.875642 92.214606 -16.593173 -0.819076
-139.666298 92.214606 -16.678729 -0.825859
-134.456954 92.214606 -16.700250 -0.816374
-129.247611 92.214606 -16.720102 -0.829175
-124.038267 92.214606 -16.711065 -0.860760
-118.828923 92.214606 -16.683353 -0.911354
-113.619579 92.214606 -16.653186 -0.968363
-108.410235 92.214606 -16.633155 -1.013743
-103.200891 92.214606 -16.624608 -1.033378
-97.991547 92.214606 -16.620547 -1.022150
-92.782203 92.214606 -16.615251 -0.984842
-87.572859 92.214606 -16.609716 -0.935919
-82.363515 92.214606 -16.609221 -0.897470
-77.154171 92.214606 -16.618530 -0.891560
-71.944828 92.214606 -16.640017 -0.928146
-66.735484 92.214606 -16.673681 -0.997595
-61.526140 92.214606 -16.716437 -1.075979
-56.316796 92.214606 -16.761950 -1.139908
-51.107452 92.214606 -16.804316 -1.178654
-45.898108 92.214606 -16.843936 -1.195174
-40.688764 92.214606 -16.888996 -1.198710
-35.479420 92.214606 -16.949407 -1.197202
-30.270076 92.214606 -17.028410 -1.194097
-25.060732 92.214606 -17.119649 -1.188297
-19.851388 92.214606 -17.211313 -1.174506
-14.642045 92.214606 -17.292872 -1.144153
-9.432701 92.214606 -17.359671 -1.089348
-4.223357 92.214606 -17.413720 -1.009338
0.985987 92.214606 -17.460947 -0.913414
6.195331 92.214606 -17.506381 -0.815326
11.404675 92.214606 -17.550250 -0.723810
16.614019 92.214606 -17.588179 -0.639326
21.823363 92.214606 -17.615366 -0.559128
27.032707 92.214606 -17.630940 -0.482238
32.242051 92.214606 -17.638748 -0.408195
37.451395 92.214606 -17.644130 -0.334083
42.660738 92.214606 -17.649296 -0.256229
47.870082 92.214606 -17.651091 -0.174251
53.079426 92.214606 -17.643861 -0.091088
58.288770 92.214606 -17.626140 -0.009068
63.498114 92.214606 -17.605174 0.072283
68.707458 92.214606 -17.593385 0.154652
73.916802 92.214606 -17.598124 0.238844
79.126146 92.214606 -17.612990 0.324076
84.335490 92.214606 -17.618579 0.406853
89.544834 92.214606 -17.593060 0.479553
94.754178 92.214606 -17.525438 0.532572
99.963521 92.214606 -17.421990 0.561199
105.172865 92.214606 -17.301347 0.571602
110.382209 92.214606 -17.183262 0.579008
115.591553 92.214606 -17.080394 0.598167
120.800897 92.214606 -16.996453 0.633884
126.010241 92.214606 -16.927201 0.679539
131.219585 92.214606 -16.862657 0.723636
136.428929 92.214606 -16.793440 0.756772
141.638273 92.214606 -16.720040 0.772983
146.847617 92.214606 -16.656300 0.768133
152.056961 92.214606 -16.621097 0.741397
157.266304 92.214606 -16.579300 0.702818
162.475648 92.214606 -16.650957 0.634080
167.684992 92.214606 -16.721530 0.597474
172.894336 92.214606 -16.763564 0.582574
-155.294330 87.005262 -16.367045 -0.841645
-150.084986 87.005262 -16.428204 -0.883722
-144.875642 87.005262 -16.537796 -0.950913
-139.666298 87.005262 -16.636731 -0.977031
-134.456954 87.005262 -16.673999 -0.951254
-129.247611 87.005262 -16.702235 -0.952658
-124.038267 87.005262 -16.695087 -0.965135
-118.828923 87.005262 -16.662116 -0.992994
-113.619579 87.005262 -16.622628 -1.024792
-108.410235 87.005262 -16.594611 -1.041791
-103.200891 87.005262 -16.584211 -1.031842
-97.991547 87.005262 -16.585598 -0.997068
-92.782203 87.005262 -16.590316 -0.951125
-87.572859 87.005262 -16.595932 -0.911512
-82.363515 87.005262 -16.606647 -0.893952
-77.154171 87.005262 -16.627874 -0.909448
-71.944828 87.005262 -16.661345 -0.960706
-66.735484 87.005262 -16.704367 -1.038710
-61.526140 87.005262 -16.751831 -1.124494
-56.316796 87.005262 -16.798749 -1.197644
-51.107452 87.005262 -16.843115 -1.245759
-45.898108 87.005262 -16.888401 -1.267886
-40.688764 87.005262 -16.942536 -1.270760
-35.479420 87.005262 -17.012085 -1.262271
-30.270076 87.005262 -17.096137 -1.247190
-25.060732 87.005262 -17.185985 -1.226825
-19.851388 87.005262 -17.270980 -1.200269
-14.642045 87.005262 -17.344821 -1.164519
-9.432701 87.005262 -17.407405 -1.114743
-4.223357 87.005262 -17.462434 -1.047722
0.985987 87.005262 -17.513818 -0.966210
6.195331 87.005262 -17.563006 -0.877816
11.404675 87.005262 -17.608047 -0.788378
16.614019 87.005262 -17.644673 -0.698351
21.823363 87.005262 -17.669374 -0.606597
27.032707 87.005262 -17.682763 -0.514692
32.242051 87.005262 -17.690431 -0.424905
37.451395 87.005262 -17.699471 -0.335975
42.660738 87.005262 -17.712293 -0.244317
47.870082 87.005262 -17.723233 -0.148841
53.079426 87.005262 -17.722842 -0.051772
58.288770 87.005262 -17.707749 0.045162
63.498114 87.005262 -17.686443 0.142451
68.707458 87.005262 -17.673274 0.239763
73.916802 87.005262 -17.675038 0.333468
79.126146 87.005262 -17.682798 0.418770
84.335490 87.005262 -17.676536 0.492903
89.544834 87.005262 -17.637955 0.554578
94.754178 87.005262 -17.561006 0.601452
99.963521 87.005262 -17.453496 0.631290
105.172865 87.005262 -17.330914 0.647177
110.382209 87.005262 -17.208868 0.659861
115.591553 87.005262 -17.099556 0.681633
120.800897 87.005262 -17.011066 0.716378
126.010241 87.005262 -16.944786 0.756652
131.219585 87.005262 -16.892039 0.791192
136.428929 87.005262 -16.837611 0.813577
141.638273 87.005262 -16.771870 0.822728
146.847617 87.005262 -16.700931 0.818623
152.056961 87.005262 -16.643321 0.802326
157.266304 87.005262 -16.568876 0.772889
162.475648 87.005262 -16.599921 0.738256
167.684992 87.005262 -16.646388 0.741880
172.894336 87.005262 -16.675780 0.750653
-155.294330 81.795918 -16.287667 -0.941749
-150.084986 81.795918 -16.347891 -0.984505
-144.875642 81.795918 -16.466975 -1.053196
-139.666298 81.795918 -16.590493 -1.078381
-134.456954 81.795918 -16.636396 -1.042762
-129.247611 81.795918 -16.668493 -1.034441
-124.038267 81.795918 -16.657175 -1.034261
-118.828923 81.795918 -16.615687 -1.047415
-113.619579 81.795918 -16.568937 -1.061894
-108.410235 81.795918 -16.539851 -1.057465
-103.200891 81.795918 -16.536553 -1.022909
-97.991547 81.795918 -16.550686 -0.966502
-92.782203 81.795918 -16.568298 -0.910883
-87.572859 81.795918 -16.583344 -0.878418
-82.363515 81.795918 -16.601625 -0.880831
-77.154171 81.795918 -16.632816 -0.919139
-71.944828 81.795918 -16.680089 -0.987888
-66.735484 81.795918 -16.737520 -1.076478
-61.526140 81.795918 -16.795591 -1.168790
-56.316796 81.795918 -16.847811 -1.246571
-51.107452 81.795918 -16.893990 -1.296802
-45.898108 81.795918 -16.940431 -1.317048
-40.688764 81.795918 -16.997008 -1.314017
-35.479420 81.795918 -17.070551 -1.297025
-30.270076 81.795918 -17.158428 -1.272571
-25.060732 81.795918 -17.249092 -1.244074
-19.851388 81.795918 -17.330508 -1.214029
-14.642045 81.795918 -17.398595 -1.183095
-9.432701 81.795918 -17.457713 -1.146982
-4.223357 81.795918 -17.514192 -1.098042
0.985987 81.795918 -17.570382 -1.032435
6.195331 81.795918 -17.623959 -0.953886
11.404675 81.795918 -17.670670 -0.868579
16.614019 81.795918 -17.706810 -0.778791
21.823363 81.795918 -17.730762 -0.683958
27.032707 81.795918 -17.744746 -0.585327
32.242051 81.795918 -17.755547 -0.485507
37.451395 81.795918 -17.771173 -0.384321
42.660738 81.795918 -17.793843 -0.278952
47.870082 81.795918 -17.815759 -0.168497
53.079426 81.795918 -17.824255 -0.055280
58.288770 81.795918 -17.813604 0.058900
63.498114 81.795918 -17.791613 0.174555
68.707458 81.795918 -17.772679 0.290481
73.916802 81.795918 -17.763389 0.400025
79.126146 81.795918 -17.755257 0.494221
84.335490 81.795918 -17.731260 0.568620
89.544834 81.795918 -17.678516 0.625342
94.754178 81.795918 -17.595518 0.668617
99.963521 81.795918 -17.490091 0.700940
105.172865 81.795918 -17.373199 0.725290
110.382209 81.795918 -17.255302 0.748612
115.591553 81.795918 -17.146946 0.778362
120.800897 81.795918 -17.058833 0.814027
126.010241 81.795918 -16.996470 0.845471
131.219585 81.795918 -16.952802 0.862716
136.428929 81.795918 -16.909105 0.865688
141.638273 81.795918 -16.847887 0.861775
146.847617 81.795918 -16.767383 0.856318
152.056961 81.795918 -16.683438 0.850085
157.266304 81.795918 -16.573537 0.835950
162.475648 81.795918 -16.548295 0.824745
167.684992 81.795918 -16.557584 0.850974
172.894336 81.795918 -16.568663 0.873262
-155.294330 76.586574 -16.185582 -1.047030
-150.084986 76.586574 -16.245695 -1.077493
-144.875642 76.586574 -16.378116 -1.124446
-139.666298 76.586574 -16.529775 -1.134639
-134.456954 76.586574 -16.581057 -1.096897
-129.247611 76.586574 -16.616673 -1.082919
-124.038267 76.586574 -16.603827 -1.078070
-118.828923 76.586574 -16.561716 -1.085702
-113.619579 76.586574 -16.519527 -1.092431
-108.410235 76.586574 -16.500284 -1.077025
-103.200891 76.586574 -16.509131 -1.028834
-97.991547 76.586574 -16.533633 -0.959984
-92.782203 76.586574 -16.556685 -0.899492
-87.572859 76.586574 -16.572329 -0.874357
-82.363515 76.586574 -16.590367 -0.894949
-77.154171 76.586574 -16.625619 -0.955406
-71.944828 76.586574 -16.683298 -1.042812
-66.735484 76.586574 -16.754992 -1.142763
-61.526140 76.586574 -16.826518 -1.238873
-56.316796 76.586574 -16.887732 -1.313706
-51.107452 76.586574 -16.937233 -1.355151
-45.898108 76.586574 -16.982435 -1.362660
-40.688764 76.586574 -17.035905 -1.346043
-35.479420 76.586574 -17.107213 -1.317626
-30.270076 76.586574 -17.194626 -1.285812
-25.060732 76.586574 -17.285343 -1.255478
-19.851388 76.586574 -17.366062 -1.231014
-14.642045 76.586574 -17.433628 -1.214263
-9.432701 76.586574 -17.494815 -1.198812
-4.223357 76.586574 -17.556926 -1.171065
0.985987 76.586574 -17.620367 -1.120958
6.195331 76.586574 -17.679788 -1.050194
11.404675 76.586574 -17.729684 -0.967602
16.614019 76.586574 -17.767747 -0.878794
21.823363 76.586574 -17.794835 -0.783691
27.032707 76.586574 -17.814780 -0.681896
32.242051 76.586574 -17.834349 -0.575309
37.451395 76.586574 -17.860299 -0.465088
42.660738 76.586574 -17.893105 -0.350101
47.870082 76.586574 -17.923372 -0.229750
53.079426 76.586574 -17.937234 -0.105308
58.288770 76.586574 -17.927866 0.022998
63.498114 76.586574 -17.901766 0.157163
68.707458 76.586574 -17.872234 0.296383
73.916802 76.586574 -17.846291 0.431632
79.126146 76.586574 -17.818457 0.548443
84.335490 76.586574 -17.776804 0.636772
89.544834 76.586574 -17.713351 0.697643
94.754178 76.586574 -17.628451 0.740201
99.963521 76.586574 -17.527626 0.774252
105.172865 76.586574 -17.417298 0.806959
110.382209 76.586574 -17.304704 0.843549
115.591553 76.586574 -17.200481 0.885121
120.800897 76.586574 -17.117477 0.923801
126.010241 76.586574 -17.062616 0.945296
131.219585 76.586574 -17.027751 0.941977
136.428929 76.586574 -16.990337 0.922481
141.638273 76.586574 -16.927342 0.904219
146.847617 76.586574 -16.832217 0.896952
152.056961 76.586574 -16.720163 0.897684
157.266304 76.586574 -16.572574 0.901135
162.475648 76.586574 -16.498799 0.890012
167.684992 76.586574 -16.480031 0.909832
172.894336 76.586574 -16.479020 0.929778
-155.294330 71.377230 -16.093124 -1.137567
-150.084986 71.377230 -16.145927 -1.150529
-144.875642 71.377230 -16.278842 -1.165264
-139.666298 71.377230 -16.447368 -1.154195
-134.456954 71.377230 -16.508089 -1.119780
-129.247611 71.377230 -16.551598 -1.104146
-124.038267 71.377230 -16.548126 -1.101158
-118.828923 71.377230 -16.520574 -1.111196
-113.619579 71.377230 -16.497637 -1.119947
-108.410235 71.377230 -16.496519 -1.106407
-103.200891 71.377230 -16.515797 -1.060004
-97.991547 71.377230 -16.540654 -0.993186
-92.782203 71.377230 -16.556724 -0.936801
-87.572859 71.377230 -16.563344 -0.920631
-82.363515 71.377230 -16.575050 -0.956025
-77.154171 71.377230 -16.609077 -1.034402
-71.944828 71.377230 -16.670715 -1.137725
-66.735484 71.377230 -16.750082 -1.247000
-61.526140 71.377230 -16.830641 -1.343491
-56.316796 71.377230 -16.899441 -1.409704
-51.107452 71.377230 -16.952652 -1.435563
-45.898108 71.377230 -16.996864 -1.424296
-40.688764 71.377230 -17.045931 -1.390014
-35.479420 71.377230 -17.111976 -1.348336
-30.270076 71.377230 -17.195577 -1.309658
-25.060732 71.377230 -17.285256 -1.280385
-19.851388 71.377230 -17.368291 -1.266057
-14.642045 71.377230 -17.441622 -1.267725
-9.432701 71.377230 -17.511347 -1.274749
-4.223357 71.377230 -17.583202 -1.266887
0.985987 71.377230 -17.655790 -1.228688
6.195331 71.377230 -17.722697 -1.161101
11.404675 71.377230 -17.778748 -1.076522
16.614019 71.377230 -17.823246 -0.984510
21.823363 71.377230 -17.859129 -0.885831
27.032707 71.377230 -17.891225 -0.778473
32.242051 71.377230 -17.924959 -0.663761
37.451395 71.377230 -17.963776 -0.545121
42.660738 71.377230 -18.005140 -0.424529
47.870082 71.377230 -18.038900 -0.302127
53.079426 71.377230 -18.052325 -0.176613
58.288770 71.377230 -18.039346 -0.043761
63.498114 71.377230 -18.005428 0.102893
68.707458 71.377230 -17.962428 0.265322
73.916802 71.377230 -17.918261 0.433398
79.126146 71.377230 -17.871727 0.586283
84.335490 71.377230 -17.816334 0.704564
89.544834 71.377230 -17.747154 0.782867
94.754178 71.377230 -17.663349 0.831696
99.963521 71.377230 -17.566330 0.868628
105.172865 71.377230 -17.459015 0.908328
110.382209 71.377230 -17.348559 0.957183
115.591553 71.377230 -17.248295 1.010494
120.800897 71.377230 -17.172997 1.052190
126.010241 71.377230 -17.127990 1.063407
131.219585 71.377230 -17.100730 1.039236
136.428929 71.377230 -17.064222 0.997323
141.638273 71.377230 -16.992770 0.964508
146.847617 71.377230 -16.879512 0.953360
152.056961 71.377230 -16.742310 0.955037
157.266304 71.377230 -16.560553 0.971963
162.475648 71.377230 -16.459214 0.939619
167.684992 71.377230 -16.431811 0.929740
172.894336 71.377230 -16.429708 0.935035
-155.294330 66.167886 -16.047247 -1.202152
-150.084986 66.167886 -16.081429 -1.198641
-144.875642 66.167886 -16.191082 -1.181436
-139.666298 66.167886 -16.353541 -1.148511
-134.456954 66.167886 -16.431331 -1.118837
-129.247611 66.167886 -16.487707 -1.103400
-124.038267 66.167886 -16.504798 -1.105248
-118.828923 66.167886 -16.503406 -1.122298
-113.619579 66.167886 -16.506579 -1.140629
-108.410235 66.167886 -16.523104 -1.140695
-103.200891 66.167886 -16.545724 -1.111148
-97.991547 66.167886 -16.561160 -1.060967
-92.782203 66.167886 -16.562825 -1.017979
-87.572859 66.167886 -16.557808 -1.012174
-82.363515 66.167886 -16.563105 -1.057329
-77.154171 66.167886 -16.593516 -1.146084
-71.944828 66.167886 -16.651542 -1.258653
-66.735484 66.167886 -16.727384 -1.372713
-61.526140 66.167886 -16.806431 -1.467172
-56.316796 66.167886 -16.876558 -1.524583
-51.107452 66.167886 -16.932463 -1.537045
-45.898108 66.167886 -16.978255 -1.510782
-40.688764 66.167886 -17.026172 -1.462379
-35.479420 66.167886 -17.088703 -1.409164
-30.270076 66.167886 -17.168887 -1.363356
-25.060732 66.167886 -17.258736 -1.333713
-19.851388 66.167886 -17.347736 -1.327290
-14.642045 66.167886 -17.431882 -1.343765
-9.432701 66.167886 -17.513797 -1.367848
-4.223357 66.167886 -17.596102 -1.373400
0.985987 66.167886 -17.676868 -1.340825
6.195331 66.167886 -17.751232 -1.270608
11.404675 66.167886 -17.815723 -1.177978
16.614019 66.167886 -17.870788 -1.076052
21.823363 66.167886 -17.920287 -0.967220
27.032707 66.167886 -17.969130 -0.849059
32.242051 66.167886 -18.020574 -0.723006
37.451395 66.167886 -18.073894 -0.595027
42.660738 66.167886 -18.123115 -0.470608
47.870082 66.167886 -18.157850 -0.351049
53.079426 66.167886 -18.167677 -0.232261
58.288770 66.167886 -18.148395 -0.104477
63.498114 66.167886 -18.105167 0.045003
68.707458 66.167886 -18.048808 0.223253
73.916802 66.167886 -17.988439 0.421766
79.126146 66.167886 -17.927062 0.615384
84.335490 66.167886 -17.862741 0.774879
89.544834 66.167886 -17.791804 0.884762
94.754178 66.167886 -17.710375 0.951682
99.963521 66.167886 -17.615242 0.997470
105.172865 66.167886 -17.507174 1.044220
110.382209 66.167886 -17.395377 1.101896
115.591553 66.167886 -17.296929 1.162848
120.800897 66.167886 -17.227471 1.204878
126.010241 66.167886 -17.188456 1.205442
131.219585 66.167886 -17.161742 1.161728
136.428929 66.167886 -17.117570 1.098263
141.638273 66.167886 -17.031684 1.048966
146.847617 66.167886 -16.900905 1.028442
152.056961 66.167886 -16.746950 1.023366
157.266304 66.167886 -16.543828 1.043351
162.475648 66.167886 -16.435785 0.984349
167.684992 66.167886 -16.414545 0.941303
172.894336 66.167886 -16.418542 0.930236
-155.294330 60.958542 -16.068509 -1.236403
-150.084986 60.958542 -16.075950 -1.221374
-144.875642 60.958542 -16.140775 -1.181005
-139.666298 60.958542 -16.271395 -1.132059
-134.456954 60.958542 -16.369296 -1.106956
-129.247611 60.958542 -16.438348 -1.092227
-124.038267 60.958542 -16.478807 -1.098092
-118.828923 60.958542 -16.503420 -1.121619
-113.619579 60.958542 -16.527184 -1.151257
-108.410235 60.958542 -16.552925 -1.170354
-103.200891 60.958542 -16.572179 -1.166523